/*--------------------------------*- C++ -*----------------------------------*\
| =========                 |                                                 |
| \\      /  F ield         | OpenFOAM: The Open Source CFD Toolbox           |
|  \\    /   O peration     | Version:  2312                                  |
|   \\  /    A nd           | Website:  www.openfoam.com                      |
|    \\/     M anipulation  |                                                 |
\*---------------------------------------------------------------------------*/
FoamFile
{
    version     2.0;
    format      ascii;
    arch        "LSB;label=32;scalar=64";
    class       volScalarField;
    location    "0";
    object      cellSignedDist;
}
// * * * * * * * * * * * * * * * * * * * * * * * * * * * * * * * * * * * * * //

dimensions      [0 1 0 0 0 0 0];

internalField   nonuniform List<scalar> 
1300
(
-5.0332559388545e-06
-4.5709778323456e-06
-4.1271908500971e-06
-3.701894992109e-06
-3.2950902583812e-06
-2.9067766489137e-06
-2.5369541637066e-06
-2.1856228027598e-06
-1.8527825660734e-06
-1.5384334536474e-06
-1.2425754654818e-06
-0.0004018589806312
-0.000306266765225
-0.00021076349736308
-0.00011537202556932
-2.0123712379381e-05
7.4937220533043e-05
0.00016974640764889
0.00026420652793798
0.00035816344470996
6.9899258185554e-07
7.9144820315732e-07
8.6541270019874e-07
9.2088607297981e-07
9.5786832150052e-07
9.7635944576087e-07
9.7635944576087e-07
9.5786832150052e-07
9.2088607297981e-07
8.6541270019874e-07
7.9144820315732e-07
6.9899258185555e-07
0.00035816344470996
0.00026420652793798
0.00016974640764889
7.4937220533044e-05
-2.0123712379381e-05
-0.00011537202556932
-0.00021076349736308
-0.000306266765225
-0.0004018589806312
-1.2425754654817e-06
-1.5384334536474e-06
-1.8527825660734e-06
-2.1856228027598e-06
-2.5369541637066e-06
-2.9067766489137e-06
-3.2950902583812e-06
-3.701894992109e-06
-4.1271908500972e-06
-4.5709778323457e-06
-5.0332559388546e-06
-5.0708369273604e-06
-4.6085588208515e-06
-4.164771838603e-06
-3.7394759806148e-06
-3.332671246887e-06
-2.9443576374196e-06
-2.5745351522125e-06
-2.2232037912657e-06
-1.8903635545793e-06
-1.5760144421533e-06
-1.2801564539876e-06
-0.00041519948773388
-0.00032057330369702
-0.00022618482907462
-0.0001320935226069
-3.8380169814782e-05
5.4842799074664e-05
0.00014741451096221
0.00023909723220705
0.00032952617335762
0.00041811650079218
7.5386721465144e-07
8.2783171169286e-07
8.8330508447392e-07
9.2028733299463e-07
9.3877845725498e-07
9.3877845725498e-07
9.2028733299463e-07
8.8330508447392e-07
8.2783171169286e-07
7.5386721465144e-07
0.00041811650079218
0.00032952617335762
0.00023909723220705
0.00014741451096221
5.4842799074665e-05
-3.8380169814781e-05
-0.0001320935226069
-0.00022618482907462
-0.00032057330369702
-0.00041519948773388
-1.2801564539876e-06
-1.5760144421533e-06
-1.8903635545793e-06
-2.2232037912657e-06
-2.5745351522125e-06
-2.9443576374196e-06
-3.3326712468871e-06
-3.7394759806149e-06
-4.1647718386031e-06
-4.6085588208516e-06
-5.0708369273605e-06
-5.1284179158663e-06
-4.6661398093574e-06
-4.2223528271089e-06
-3.7970569691207e-06
-3.3902522353929e-06
-3.0019386259255e-06
-2.6321161407184e-06
-2.2807847797716e-06
-1.9479445430852e-06
-1.6335954306592e-06
-1.3377374424935e-06
-1.0603705785881e-06
-0.00034219776446809
-0.00024944396575383
-0.00015724532076582
-6.5745919800053e-05
2.4857383268016e-05
0.00011428954808939
0.00020215665037499
0.00028787912492446
0.00037058011220154
6.9628622614555e-07
7.7025072318697e-07
8.2572409596804e-07
8.6270634448875e-07
8.811974687491e-07
8.811974687491e-07
8.6270634448875e-07
8.2572409596804e-07
7.7025072318697e-07
6.9628622614555e-07
0.00037058011220154
0.00028787912492446
0.00020215665037499
0.00011428954808939
2.4857383268016e-05
-6.5745919800053e-05
-0.00015724532076582
-0.00024944396575383
-0.00034219776446809
-1.0603705785881e-06
-1.3377374424935e-06
-1.6335954306592e-06
-1.9479445430852e-06
-2.2807847797716e-06
-2.6321161407184e-06
-3.0019386259255e-06
-3.3902522353929e-06
-3.7970569691208e-06
-4.222352827109e-06
-4.6661398093575e-06
-5.1284179158664e-06
-5.2059989043722e-06
-4.7437207978633e-06
-4.2999338156148e-06
-3.8746379576266e-06
-3.4678332238988e-06
-3.0795196144313e-06
-2.7096971292242e-06
-2.3583657682775e-06
-2.0255255315911e-06
-1.7111764191651e-06
-1.4153184309994e-06
-1.137951567094e-06
-0.00037079386759973
-0.00028011374965842
-0.0001902931239574
-0.00010154226159342
-1.4142056850413e-05
7.1525986831305e-05
0.00015493491431326
0.00023534509141427
0.00031170472639854
0.00038250930180258
6.9266973468109e-07
7.4814310746215e-07
7.8512535598286e-07
8.0361648024321e-07
8.0361648024321e-07
7.8512535598286e-07
7.4814310746215e-07
6.9266973468109e-07
0.00038250930180258
0.00031170472639854
0.00023534509141427
0.00015493491431326
7.1525986831305e-05
-1.4142056850413e-05
-0.00010154226159342
-0.0001902931239574
-0.00028011374965842
-0.00037079386759973
-1.137951567094e-06
-1.4153184309994e-06
-1.711176419165e-06
-2.0255255315911e-06
-2.3583657682775e-06
-2.7096971292242e-06
-3.0795196144314e-06
-3.4678332238988e-06
-3.8746379576267e-06
-4.2999338156148e-06
-4.7437207978634e-06
-5.2059989043723e-06
-5.3035798928781e-06
-4.8413017863692e-06
-4.3975148041207e-06
-3.9722189461325e-06
-3.5654142124047e-06
-3.1771006029372e-06
-2.8072781177301e-06
-2.4559467567834e-06
-2.123106520097e-06
-1.808757407671e-06
-1.5128994195053e-06
-1.2355325555999e-06
-0.00040593627734507
-0.0003176768194707
-0.00023060095459338
-0.00014497875202216
-6.1162145941266e-05
2.0385289189944e-05
9.9047177954017e-05
0.00017399871808203
0.00024413534798352
0.00030799150954181
0.00036367362633253
0.00040886728982086
0.00044102269051148
7.0603549173733e-07
7.0603549173733e-07
0.00044102269051148
0.00040886728982086
0.00036367362633253
0.00030799150954181
0.00024413534798352
0.00017399871808203
9.9047177954018e-05
2.0385289189945e-05
-6.1162145941265e-05
-0.00014497875202216
-0.00023060095459338
-0.0003176768194707
-0.00040593627734507
-1.2355325555999e-06
-1.5128994195052e-06
-1.8087574076709e-06
-2.123106520097e-06
-2.4559467567834e-06
-2.8072781177301e-06
-3.1771006029372e-06
-3.5654142124047e-06
-3.9722189461325e-06
-4.3975148041207e-06
-4.8413017863693e-06
-5.3035798928782e-06
-5.4211608813839e-06
-4.9588827748751e-06
-4.5150957926265e-06
-4.0897999346384e-06
-3.6829952009106e-06
-3.2946815914431e-06
-2.924859106236e-06
-2.5735277452893e-06
-2.2406875086029e-06
-1.9263383961768e-06
-1.6304804080112e-06
-1.3531135441058e-06
-1.0942378044608e-06
-0.00036156277456322
-0.00027748177989044
-0.00019522271191946
-0.00011518881293015
-3.789497066965e-05
3.5999493745721e-05
0.00010565157447669
0.00016999255384432
0.00022769388234192
0.00027716375137194
0.00031661221144242
0.00034422822489153
0.00035848188118452
0.00035848188118452
0.00034422822489153
0.00031661221144242
0.00027716375137194
0.00022769388234192
0.00016999255384432
0.0001056515744767
3.5999493745721e-05
-3.7894970669649e-05
-0.00011518881293015
-0.00019522271191946
-0.00027748177989043
-0.00036156277456322
-1.0942378044608e-06
-1.3531135441058e-06
-1.6304804080111e-06
-1.9263383961768e-06
-2.2406875086029e-06
-2.5735277452893e-06
-2.924859106236e-06
-3.2946815914431e-06
-3.6829952009106e-06
-4.0897999346384e-06
-4.5150957926266e-06
-4.9588827748752e-06
-5.4211608813841e-06
-5.5587418698898e-06
-5.096463763381e-06
-4.6526767811324e-06
-4.2273809231443e-06
-3.8205761894165e-06
-3.432262579949e-06
-3.0624400947419e-06
-2.7111087337952e-06
-2.3782684971088e-06
-2.0639193846827e-06
-1.7680613965171e-06
-1.4906945326117e-06
-1.2318187929667e-06
-9.9143417758219e-07
-0.00033024083776507
-0.00025145448163088
-0.00017525617504885
-0.00010218281543818
-3.289784807811e-05
3.1785098884602e-05
9.0883203774253e-05
0.00014323998232995
0.00018755109032225
0.00022243980422381
0.00024659598518803
0.00025896930881748
0.00025896930881748
0.00024659598518803
0.00022243980422381
0.00018755109032225
0.00014323998232995
9.0883203774253e-05
3.1785098884602e-05
-3.289784807811e-05
-0.00010218281543818
-0.00017525617504885
-0.00025145448163088
-0.00033024083776507
-9.9143417758219e-07
-1.2318187929667e-06
-1.4906945326117e-06
-1.768061396517e-06
-2.0639193846827e-06
-2.3782684971087e-06
-2.7111087337951e-06
-3.0624400947419e-06
-3.432262579949e-06
-3.8205761894165e-06
-4.2273809231443e-06
-4.6526767811325e-06
-5.096463763381e-06
-5.5587418698899e-06
-5.7163228583957e-06
-5.2540447518868e-06
-4.8102577696383e-06
-4.3849619116502e-06
-3.9781571779224e-06
-3.5898435684549e-06
-3.2200210832478e-06
-2.868689722301e-06
-2.5358494856146e-06
-2.2215003731886e-06
-1.9256423850229e-06
-1.6482755211176e-06
-1.3893997814726e-06
-1.1490151660881e-06
-9.271216749638e-07
-0.00031290491205566
-0.00024048702754053
-0.0001714896274202
-0.00010655273397623
-4.6432550739791e-05
7.9947894866422e-06
5.5744358563914e-05
9.5757654529245e-05
0.0001269703060254
0.00014841406890398
0.00015934104787951
0.00015934104787951
0.00014841406890398
0.0001269703060254
9.5757654529245e-05
5.5744358563914e-05
7.9947894866426e-06
-4.6432550739791e-05
-0.00010655273397623
-0.0001714896274202
-0.00024048702754053
-0.00031290491205566
-9.271216749638e-07
-1.1490151660881e-06
-1.3893997814726e-06
-1.6482755211176e-06
-1.9256423850229e-06
-2.2215003731886e-06
-2.5358494856146e-06
-2.868689722301e-06
-3.2200210832478e-06
-3.5898435684549e-06
-3.9781571779224e-06
-4.3849619116502e-06
-4.8102577696384e-06
-5.2540447518869e-06
-5.7163228583958e-06
-5.8939038469016e-06
-5.4316257403927e-06
-4.9878387581442e-06
-4.562542900156e-06
-4.1557381664282e-06
-3.7674245569608e-06
-3.3976020717537e-06
-3.0462707108069e-06
-2.7134304741205e-06
-2.3990813616945e-06
-2.1032233735288e-06
-1.8258565096234e-06
-1.5669807699785e-06
-1.326596154594e-06
-1.1047026634697e-06
-9.0130029660577e-07
-0.0003101103213097
-0.0002449774839968
-0.00018407767548255
-0.00012809665887001
-7.7801153363429e-05
-3.402113367656e-05
2.385240762579e-06
3.0586860483482e-05
4.985286058076e-05
5.9633867960882e-05
5.9633867960882e-05
4.985286058076e-05
3.0586860483482e-05
2.3852407625791e-06
-3.4021133676561e-05
-7.7801153363428e-05
-0.00012809665887001
-0.00018407767548255
-0.0002449774839968
-0.0003101103213097
-9.0130029660577e-07
-1.1047026634697e-06
-1.326596154594e-06
-1.5669807699785e-06
-1.8258565096234e-06
-2.1032233735288e-06
-2.3990813616945e-06
-2.7134304741205e-06
-3.0462707108069e-06
-3.3976020717537e-06
-3.7674245569608e-06
-4.1557381664283e-06
-4.5625429001561e-06
-4.9878387581443e-06
-5.4316257403928e-06
-5.8939038469017e-06
-6.0914848354075e-06
-5.6292067288986e-06
-5.1854197466501e-06
-4.7601238886619e-06
-4.3533191549341e-06
-3.9650055454667e-06
-3.5951830602596e-06
-3.2438516993128e-06
-2.9110114626264e-06
-2.5966623502004e-06
-2.3008043620347e-06
-2.0234374981293e-06
-1.7645617584843e-06
-1.5241771430998e-06
-1.3022836519756e-06
-1.0988812851117e-06
-9.139700425081e-07
-0.00032194928955875
-0.00026476121464965
-0.00021251105572673
-0.00016586290561859
-0.00012551352430597
-9.2161250161451e-05
-6.6462762394055e-05
-4.8980731497223e-05
-4.0129535582996e-05
-4.0129535582996e-05
-4.8980731497223e-05
-6.6462762394055e-05
-9.216125016145e-05
-0.00012551352430597
-0.00016586290561859
-0.00021251105572673
-0.00026476121464964
-0.00032194928955875
-9.139700425081e-07
-1.0988812851117e-06
-1.3022836519756e-06
-1.5241771430998e-06
-1.7645617584843e-06
-2.0234374981293e-06
-2.3008043620347e-06
-2.5966623502003e-06
-2.9110114626264e-06
-3.2438516993128e-06
-3.5951830602596e-06
-3.9650055454667e-06
-4.3533191549341e-06
-4.760123888662e-06
-5.1854197466502e-06
-5.6292067288987e-06
-6.0914848354076e-06
-6.3090658239134e-06
-5.8467877174045e-06
-5.403000735156e-06
-4.9777048771678e-06
-4.57090014344e-06
-4.1825865339725e-06
-3.8127640487654e-06
-3.4614326878187e-06
-3.1285924511323e-06
-2.8142433387063e-06
-2.5183853505406e-06
-2.2410184866352e-06
-1.9821427469902e-06
-1.7417581316057e-06
-1.5198646404815e-06
-1.3164622736175e-06
-1.131551031014e-06
-9.6513091267078e-07
-0.00034803631946173
-0.00029913973411848
-0.00025571386199377
-0.00021834382745657
-0.00018760144192406
-0.00016401194670804
-0.00014801636031824
-0.00013993440131351
-0.00013993440131351
-0.00014801636031824
-0.00016401194670804
-0.00018760144192406
-0.00021834382745657
-0.00025571386199377
-0.00029913973411848
-0.00034803631946173
-9.6513091267078e-07
-1.131551031014e-06
-1.3164622736175e-06
-1.5198646404815e-06
-1.7417581316057e-06
-1.9821427469902e-06
-2.2410184866352e-06
-2.5183853505405e-06
-2.8142433387062e-06
-3.1285924511323e-06
-3.4614326878187e-06
-3.8127640487654e-06
-4.1825865339726e-06
-4.57090014344e-06
-4.9777048771679e-06
-5.403000735156e-06
-5.8467877174046e-06
-6.3090658239135e-06
-6.5466468124193e-06
-6.0843687059104e-06
-5.6405817236619e-06
-5.2152858656737e-06
-4.8084811319459e-06
-4.4201675224784e-06
-4.0503450372713e-06
-3.6990136763246e-06
-3.3661734396382e-06
-3.0518243272122e-06
-2.7559663390465e-06
-2.4785994751411e-06
-2.2197237354961e-06
-1.9793391201116e-06
-1.7574456289873e-06
-1.5540432621234e-06
-1.3691320195199e-06
-1.2027119011767e-06
-1.0547829070938e-06
-0.00038756802978136
-0.00034699602512747
-0.00031222813199817
-0.0002837360216828
-0.00026194484847196
-0.00024720589802335
-0.00023977071581961
-0.00023977071581961
-0.00024720589802335
-0.00026194484847196
-0.0002837360216828
-0.00031222813199817
-0.00034699602512747
-0.00038756802978136
-1.0547829070938e-06
-1.2027119011767e-06
-1.3691320195199e-06
-1.5540432621234e-06
-1.7574456289873e-06
-1.9793391201116e-06
-2.2197237354961e-06
-2.4785994751411e-06
-2.7559663390464e-06
-3.0518243272121e-06
-3.3661734396382e-06
-3.6990136763246e-06
-4.0503450372713e-06
-4.4201675224784e-06
-4.8084811319459e-06
-5.2152858656737e-06
-5.6405817236619e-06
-6.0843687059105e-06
-6.5466468124194e-06
-6.8042278009251e-06
-6.3419496944163e-06
-5.8981627121677e-06
-5.4728668541796e-06
-5.0660621204518e-06
-4.6777485109843e-06
-4.3079260257772e-06
-3.9565946648305e-06
-3.6237544281441e-06
-3.309405315718e-06
-3.0135473275524e-06
-2.736180463647e-06
-2.477304724002e-06
-2.2369201086175e-06
-2.0150266174932e-06
-1.8116242506293e-06
-1.6267130080258e-06
-1.4602928896825e-06
-1.3123638955997e-06
-1.1829260257772e-06
-1.0719792802151e-06
-0.00040695545733093
-0.00038041992229607
-0.00036017858720494
-0.00034651533246752
-0.00033963144793997
-0.00033963144793998
-0.00034651533246752
-0.00036017858720494
-0.00038041992229607
-0.00040695545733093
-1.0719792802151e-06
-1.1829260257772e-06
-1.3123638955997e-06
-1.4602928896825e-06
-1.6267130080258e-06
-1.8116242506293e-06
-2.0150266174932e-06
-2.2369201086175e-06
-2.477304724002e-06
-2.736180463647e-06
-3.0135473275523e-06
-3.309405315718e-06
-3.623754428144e-06
-3.9565946648305e-06
-4.3079260257772e-06
-4.6777485109843e-06
-5.0660621204518e-06
-5.4728668541796e-06
-5.8981627121678e-06
-6.3419496944164e-06
-6.8042278009253e-06
-7.081808789431e-06
-6.6195306829222e-06
-6.1757437006736e-06
-5.7504478426855e-06
-5.3436431089577e-06
-4.9553294994902e-06
-4.5855070142831e-06
-4.2341756533364e-06
-3.90133541665e-06
-3.5869863042239e-06
-3.2911283160583e-06
-3.0137614521529e-06
-2.7548857125079e-06
-2.5145010971234e-06
-2.2926076059991e-06
-2.0892052391352e-06
-1.9042939965316e-06
-1.7378738781884e-06
-1.5899448841056e-06
-1.4605070142831e-06
-1.349560268721e-06
-1.2571046474192e-06
-1.1831401503778e-06
-1.1276667775967e-06
-0.00044591995942929
-0.00043951151604134
-0.00043951151604134
-0.00044591995942929
-1.1276667775967e-06
-1.1831401503778e-06
-1.2571046474192e-06
-1.349560268721e-06
-1.4605070142831e-06
-1.5899448841056e-06
-1.7378738781884e-06
-1.9042939965316e-06
-2.0892052391352e-06
-2.2926076059991e-06
-2.5145010971234e-06
-2.7548857125079e-06
-3.0137614521529e-06
-3.2911283160582e-06
-3.5869863042239e-06
-3.9013354166499e-06
-4.2341756533363e-06
-4.5855070142831e-06
-4.9553294994902e-06
-5.3436431089577e-06
-5.7504478426855e-06
-6.1757437006737e-06
-6.6195306829222e-06
-7.0818087894311e-06
-7.3793897779369e-06
-6.917111671428e-06
-6.4733246891795e-06
-6.0480288311914e-06
-5.6412240974636e-06
-5.2529104879961e-06
-4.883088002789e-06
-4.5317566418422e-06
-4.1989164051558e-06
-3.8845672927298e-06
-3.5887093045641e-06
-3.3113424406588e-06
-3.0524667010138e-06
-2.8120820856293e-06
-2.590188594505e-06
-2.3867862276411e-06
-2.2018749850375e-06
-2.0354548666943e-06
-1.8875258726115e-06
-1.758088002789e-06
-1.6471412572268e-06
-1.5546856359251e-06
-1.4807211388836e-06
-1.4252477661026e-06
-1.3882655175819e-06
-1.3697743933215e-06
-1.3697743933215e-06
-1.3882655175819e-06
-1.4252477661026e-06
-1.4807211388836e-06
-1.5546856359251e-06
-1.6471412572268e-06
-1.758088002789e-06
-1.8875258726115e-06
-2.0354548666943e-06
-2.2018749850375e-06
-2.3867862276411e-06
-2.590188594505e-06
-2.8120820856293e-06
-3.0524667010138e-06
-3.3113424406588e-06
-3.5887093045641e-06
-3.8845672927298e-06
-4.1989164051558e-06
-4.5317566418422e-06
-4.883088002789e-06
-5.2529104879961e-06
-5.6412240974636e-06
-6.0480288311914e-06
-6.4733246891796e-06
-6.9171116714281e-06
-7.379389777937e-06
-7.6969707664428e-06
-7.2346926599339e-06
-6.7909056776854e-06
-6.3656098196972e-06
-5.9588050859694e-06
-5.570491476502e-06
-5.2006689912949e-06
-4.8493376303481e-06
-4.5164973936617e-06
-4.2021482812357e-06
-3.90629029307e-06
-3.6289234291646e-06
-3.3700476895197e-06
-3.1296630741352e-06
-2.9077695830109e-06
-2.704367216147e-06
-2.5194559735434e-06
-2.3530358552002e-06
-2.2051068611174e-06
-2.0756689912949e-06
-1.9647222457327e-06
-1.872266624431e-06
-1.7983021273895e-06
-1.7428287546085e-06
-1.7058465060878e-06
-1.6873553818274e-06
-1.6873553818274e-06
-1.7058465060878e-06
-1.7428287546085e-06
-1.7983021273895e-06
-1.872266624431e-06
-1.9647222457327e-06
-2.0756689912949e-06
-2.2051068611174e-06
-2.3530358552002e-06
-2.5194559735434e-06
-2.704367216147e-06
-2.9077695830109e-06
-3.1296630741352e-06
-3.3700476895197e-06
-3.6289234291646e-06
-3.90629029307e-06
-4.2021482812357e-06
-4.5164973936617e-06
-4.8493376303481e-06
-5.2006689912949e-06
-5.570491476502e-06
-5.9588050859695e-06
-6.3656098196973e-06
-6.7909056776855e-06
-7.234692659934e-06
-7.6969707664429e-06
-8.0345517549487e-06
-7.5722736484398e-06
-7.1284866661913e-06
-6.7031908082031e-06
-6.2963860744753e-06
-5.9080724650078e-06
-5.5382499798008e-06
-5.186918618854e-06
-4.8540783821676e-06
-4.5397292697416e-06
-4.2438712815759e-06
-3.9665044176705e-06
-3.7076286780255e-06
-3.467244062641e-06
-3.2453505715168e-06
-3.0419482046529e-06
-2.8570369620493e-06
-2.6906168437061e-06
-2.5426878496232e-06
-2.4132499798008e-06
-2.3023032342386e-06
-2.2098476129368e-06
-2.1358831158954e-06
-2.0804097431144e-06
-2.0434274945936e-06
-2.0249363703333e-06
-2.0249363703333e-06
-2.0434274945936e-06
-2.0804097431144e-06
-2.1358831158954e-06
-2.2098476129368e-06
-2.3023032342386e-06
-2.4132499798008e-06
-2.5426878496232e-06
-2.6906168437061e-06
-2.8570369620493e-06
-3.0419482046529e-06
-3.2453505715168e-06
-3.467244062641e-06
-3.7076286780255e-06
-3.9665044176705e-06
-4.2438712815759e-06
-4.5397292697415e-06
-4.8540783821676e-06
-5.186918618854e-06
-5.5382499798008e-06
-5.9080724650079e-06
-6.2963860744753e-06
-6.7031908082032e-06
-7.1284866661914e-06
-7.5722736484399e-06
-8.0345517549488e-06
-8.3921327434546e-06
-7.9298546369457e-06
-7.4860676546972e-06
-7.060771796709e-06
-6.6539670629812e-06
-6.2656534535137e-06
-5.8958309683066e-06
-5.5444996073599e-06
-5.2116593706735e-06
-4.8973102582475e-06
-4.6014522700818e-06
-4.3240854061764e-06
-4.0652096665314e-06
-3.8248250511469e-06
-3.6029315600227e-06
-3.3995291931587e-06
-3.2146179505552e-06
-3.048197832212e-06
-2.9002688381291e-06
-2.7708309683066e-06
-2.6598842227445e-06
-2.5674286014427e-06
-2.4934641044013e-06
-2.4379907316202e-06
-2.4010084830995e-06
-2.3825173588392e-06
-2.3825173588392e-06
-2.4010084830995e-06
-2.4379907316202e-06
-2.4934641044013e-06
-2.5674286014427e-06
-2.6598842227445e-06
-2.7708309683066e-06
-2.9002688381291e-06
-3.048197832212e-06
-3.2146179505552e-06
-3.3995291931587e-06
-3.6029315600227e-06
-3.8248250511469e-06
-4.0652096665314e-06
-4.3240854061764e-06
-4.6014522700817e-06
-4.8973102582474e-06
-5.2116593706735e-06
-5.5444996073599e-06
-5.8958309683066e-06
-6.2656534535138e-06
-6.6539670629812e-06
-7.0607717967091e-06
-7.4860676546972e-06
-7.9298546369458e-06
-8.3921327434547e-06
-8.7697137319605e-06
-8.3074356254516e-06
-7.8636486432031e-06
-7.4383527852149e-06
-7.0315480514871e-06
-6.6432344420196e-06
-6.2734119568125e-06
-5.9220805958658e-06
-5.5892403591794e-06
-5.2748912467533e-06
-4.9790332585877e-06
-4.7016663946823e-06
-4.4427906550373e-06
-4.2024060396528e-06
-3.9805125485285e-06
-3.7771101816646e-06
-3.5921989390611e-06
-3.4257788207179e-06
-3.277849826635e-06
-3.1484119568125e-06
-3.0374652112504e-06
-2.9450095899486e-06
-2.8710450929072e-06
-2.8155717201261e-06
-2.7785894716054e-06
-2.7600983473451e-06
-2.7600983473451e-06
-2.7785894716054e-06
-2.8155717201261e-06
-2.8710450929072e-06
-2.9450095899486e-06
-3.0374652112504e-06
-3.1484119568125e-06
-3.277849826635e-06
-3.4257788207179e-06
-3.5921989390611e-06
-3.7771101816646e-06
-3.9805125485285e-06
-4.2024060396528e-06
-4.4427906550373e-06
-4.7016663946823e-06
-4.9790332585876e-06
-5.2748912467533e-06
-5.5892403591794e-06
-5.9220805958658e-06
-6.2734119568125e-06
-6.6432344420196e-06
-7.0315480514871e-06
-7.4383527852149e-06
-7.8636486432031e-06
-8.3074356254517e-06
-8.7697137319606e-06
-9.1672947204663e-06
-8.7050166139575e-06
-8.2612296317089e-06
-7.8359337737208e-06
-7.429129039993e-06
-7.0408154305255e-06
-6.6709929453184e-06
-6.3196615843717e-06
-5.9868213476853e-06
-5.6724722352592e-06
-5.3766142470936e-06
-5.0992473831882e-06
-4.8403716435432e-06
-4.5999870281587e-06
-4.3780935370344e-06
-4.1746911701705e-06
-3.9897799275669e-06
-3.8233598092237e-06
-3.6754308151409e-06
-3.5459929453184e-06
-3.4350461997563e-06
-3.3425905784545e-06
-3.2686260814131e-06
-3.213152708632e-06
-3.1761704601113e-06
-3.1576793358509e-06
-3.157679335851e-06
-3.1761704601113e-06
-3.213152708632e-06
-3.2686260814131e-06
-3.3425905784545e-06
-3.4350461997563e-06
-3.5459929453184e-06
-3.6754308151409e-06
-3.8233598092237e-06
-3.9897799275669e-06
-4.1746911701705e-06
-4.3780935370344e-06
-4.5999870281587e-06
-4.8403716435432e-06
-5.0992473831882e-06
-5.3766142470935e-06
-5.6724722352592e-06
-5.9868213476852e-06
-6.3196615843717e-06
-6.6709929453184e-06
-7.0408154305255e-06
-7.429129039993e-06
-7.8359337737208e-06
-8.261229631709e-06
-8.7050166139575e-06
-9.1672947204664e-06
-9.5848757089722e-06
-9.1225976024634e-06
-8.6788106202148e-06
-8.2535147622267e-06
-7.8467100284989e-06
-7.4583964190314e-06
-7.0885739338243e-06
-6.7372425728776e-06
-6.4044023361911e-06
-6.0900532237651e-06
-5.7941952355995e-06
-5.5168283716941e-06
-5.2579526320491e-06
-5.0175680166646e-06
-4.7956745255403e-06
-4.5922721586764e-06
-4.4073609160728e-06
-4.2409407977296e-06
-4.0930118036468e-06
-3.9635739338243e-06
-3.8526271882622e-06
-3.7601715669604e-06
-3.686207069919e-06
-3.6307336971379e-06
-3.5937514486172e-06
-3.5752603243568e-06
-3.5752603243568e-06
-3.5937514486172e-06
-3.6307336971379e-06
-3.686207069919e-06
-3.7601715669604e-06
-3.8526271882622e-06
-3.9635739338243e-06
-4.0930118036468e-06
-4.2409407977296e-06
-4.4073609160728e-06
-4.5922721586764e-06
-4.7956745255403e-06
-5.0175680166646e-06
-5.2579526320491e-06
-5.5168283716941e-06
-5.7941952355994e-06
-6.0900532237651e-06
-6.4044023361911e-06
-6.7372425728775e-06
-7.0885739338243e-06
-7.4583964190314e-06
-7.8467100284989e-06
-8.2535147622267e-06
-8.6788106202149e-06
-9.1225976024634e-06
-9.5848757089723e-06
-1.0022456697478e-05
-9.5601785909692e-06
-9.1163916087207e-06
-8.6910957507326e-06
-8.2842910170047e-06
-7.8959774075373e-06
-7.5261549223302e-06
-7.1748235613834e-06
-6.841983324697e-06
-6.527634212271e-06
-6.2317762241053e-06
-5.9544093602e-06
-5.695533620555e-06
-5.4551490051705e-06
-5.2332555140462e-06
-5.0298531471823e-06
-4.8449419045787e-06
-4.6785217862355e-06
-4.5305927921527e-06
-4.4011549223302e-06
-4.290208176768e-06
-4.1977525554663e-06
-4.1237880584248e-06
-4.0683146856438e-06
-4.0313324371231e-06
-4.0128413128627e-06
-4.0128413128627e-06
-4.0313324371231e-06
-4.0683146856438e-06
-4.1237880584248e-06
-4.1977525554663e-06
-4.290208176768e-06
-4.4011549223302e-06
-4.5305927921527e-06
-4.6785217862355e-06
-4.8449419045787e-06
-5.0298531471823e-06
-5.2332555140462e-06
-5.4551490051705e-06
-5.695533620555e-06
-5.9544093601999e-06
-6.2317762241053e-06
-6.527634212271e-06
-6.841983324697e-06
-7.1748235613834e-06
-7.5261549223302e-06
-7.8959774075373e-06
-8.2842910170048e-06
-8.6910957507326e-06
-9.1163916087208e-06
-9.5601785909693e-06
-1.0022456697478e-05
-1.0480037685984e-05
-1.0017759579475e-05
-9.5739725972266e-06
-9.1486767392384e-06
-8.7418720055106e-06
-8.3535583960432e-06
-7.9837359108361e-06
-7.6324045498893e-06
-7.2995643132029e-06
-6.9852152007769e-06
-6.6893572126112e-06
-6.4119903487058e-06
-6.1531146090609e-06
-5.9127299936764e-06
-5.6908365025521e-06
-5.4874341356882e-06
-5.3025228930846e-06
-5.1361027747414e-06
-4.9881737806586e-06
-4.8587359108361e-06
-4.7477891652739e-06
-4.6553335439721e-06
-4.5813690469307e-06
-4.5258956741497e-06
-4.488913425629e-06
-4.4704223013686e-06
-4.4704223013686e-06
-4.488913425629e-06
-4.5258956741497e-06
-4.5813690469307e-06
-4.6553335439722e-06
-4.7477891652739e-06
-4.8587359108361e-06
-4.9881737806586e-06
-5.1361027747414e-06
-5.3025228930846e-06
-5.4874341356882e-06
-5.6908365025521e-06
-5.9127299936764e-06
-6.1531146090609e-06
-6.4119903487058e-06
-6.6893572126112e-06
-6.9852152007769e-06
-7.2995643132029e-06
-7.6324045498893e-06
-7.9837359108361e-06
-8.3535583960432e-06
-8.7418720055107e-06
-9.1486767392385e-06
-9.5739725972267e-06
-1.0017759579475e-05
-1.0480037685984e-05
-1.095761867449e-05
-1.0495340567981e-05
-1.0051553585732e-05
-9.6262577277443e-06
-9.2194529940165e-06
-8.831139384549e-06
-8.4613168993419e-06
-8.1099855383952e-06
-7.7771453017088e-06
-7.4627961892828e-06
-7.1669382011171e-06
-6.8895713372117e-06
-6.6306955975667e-06
-6.3903109821822e-06
-6.168417491058e-06
-5.9650151241941e-06
-5.7801038815905e-06
-5.6136837632473e-06
-5.4657547691644e-06
-5.3363168993419e-06
-5.2253701537798e-06
-5.132914532478e-06
-5.0589500354366e-06
-5.0034766626556e-06
-4.9664944141348e-06
-4.9480032898745e-06
-4.9480032898745e-06
-4.9664944141348e-06
-5.0034766626556e-06
-5.0589500354366e-06
-5.132914532478e-06
-5.2253701537798e-06
-5.3363168993419e-06
-5.4657547691644e-06
-5.6136837632473e-06
-5.7801038815905e-06
-5.965015124194e-06
-6.168417491058e-06
-6.3903109821822e-06
-6.6306955975667e-06
-6.8895713372117e-06
-7.166938201117e-06
-7.4627961892827e-06
-7.7771453017088e-06
-8.1099855383952e-06
-8.4613168993419e-06
-8.8311393845491e-06
-9.2194529940165e-06
-9.6262577277444e-06
-1.0051553585733e-05
-1.0495340567981e-05
-1.095761867449e-05
-1.1455199662996e-05
-1.0992921556487e-05
-1.0549134574238e-05
-1.012383871625e-05
-9.7170339825224e-06
-9.3287203730549e-06
-8.9588978878478e-06
-8.6075665269011e-06
-8.2747262902147e-06
-7.9603771777887e-06
-7.664519189623e-06
-7.3871523257176e-06
-7.1282765860726e-06
-6.8878919706881e-06
-6.6659984795639e-06
-6.4625961126999e-06
-6.2776848700964e-06
-6.1112647517532e-06
-5.9633357576703e-06
-5.8338978878478e-06
-5.7229511422857e-06
-5.6304955209839e-06
-5.5565310239425e-06
-5.5010576511614e-06
-5.4640754026407e-06
-5.4455842783804e-06
-5.4455842783804e-06
-5.4640754026407e-06
-5.5010576511614e-06
-5.5565310239425e-06
-5.6304955209839e-06
-5.7229511422857e-06
-5.8338978878478e-06
-5.9633357576703e-06
-6.1112647517532e-06
-6.2776848700964e-06
-6.4625961126999e-06
-6.6659984795639e-06
-6.8878919706881e-06
-7.1282765860726e-06
-7.3871523257176e-06
-7.6645191896229e-06
-7.9603771777886e-06
-8.2747262902147e-06
-8.6075665269011e-06
-8.9588978878478e-06
-9.328720373055e-06
-9.7170339825224e-06
-1.012383871625e-05
-1.0549134574238e-05
-1.0992921556487e-05
-1.1455199662996e-05
)
;

boundaryField
{
    front
    {
        type            empty;
    }
    back
    {
        type            empty;
    }
    left
    {
        type            zeroGradient;
    }
    right
    {
        type            zeroGradient;
    }
    top
    {
        type            zeroGradient;
    }
    bottomRemainder
    {
        type            zeroGradient;
    }
}


// ************************************************************************* //
